REMARK SMILES CC(C)(O)[C@@H]1CC[C@](C)([C@H]2[C@@H](O)C[C@@]3(C)[C@@H]4C[C@H](O)[C@H]5C(C)(C)[C@@H](O)CC[C@@]56C[C@@]46CC[C@]23C)O1
REMARK SMILES IDX 8 1 7 2 6 3 5 4 35 5 9 6 10 7 33 8 32 9 14 10 31 11 16 12
REMARK SMILES IDX 13 13 11 14 30 15 17 16 29 17 28 18 18 19 27 20 20 21 26 22
REMARK SMILES IDX 21 23 24 24 34 25 15 26 22 27 23 28 12 29 19 31 25 33 2 35
REMARK SMILES IDX 1 36 3 37 4 38
REMARK H PARENT 12 30 19 32 25 34 4 39
ROOT
ATOM      1  C   UNL     1      -3.740  -0.913   0.956  1.00  0.00    +0.072 C 
ATOM      2  C   UNL     1      -4.774   0.137   1.394  1.00  0.00    +0.038 C 
ATOM      3  C   UNL     1      -5.875   0.020   0.365  1.00  0.00    +0.038 C 
ATOM      4  C   UNL     1      -5.157  -0.471  -0.888  1.00  0.00    +0.150 C 
ATOM      5  O   UNL     1      -3.859  -0.944  -0.489  1.00  0.00    -0.369 OA
ATOM      6  C   UNL     1      -4.155  -2.304   1.458  1.00  0.00    +0.043 C 
ENDROOT
BRANCH   1   7
ATOM      7  C   UNL     1      -2.304  -0.416   1.285  1.00  0.00    +0.056 C 
ATOM      8  C   UNL     1      -1.013  -1.161   0.807  1.00  0.00    -0.019 C 
ATOM      9  C   UNL     1      -0.705  -1.127  -0.700  1.00  0.00    +0.008 C 
ATOM     10  C   UNL     1       0.115  -0.319   1.547  1.00  0.00    -0.021 C 
ATOM     11  C   UNL     1       0.692  -1.706  -0.994  1.00  0.00    +0.008 C 
ATOM     12  C   UNL     1       1.498  -1.015   1.351  1.00  0.00    +0.005 C 
ATOM     13  C   UNL     1      -0.460  -0.294   2.972  1.00  0.00    +0.039 C 
ATOM     14  C   UNL     1      -1.981  -0.065   2.772  1.00  0.00    +0.121 C 
ATOM     15  C   UNL     1       1.829  -1.105  -0.147  1.00  0.00    -0.020 C 
ATOM     16  C   UNL     1       2.658  -0.511   2.217  1.00  0.00    +0.037 C 
ATOM     17  C   UNL     1       3.215  -1.585  -0.542  1.00  0.00    +0.016 C 
ATOM     18  C   UNL     1       2.866  -0.128  -0.737  1.00  0.00    -0.017 C 
ATOM     19  C   UNL     1       3.530   0.629   1.692  1.00  0.00    +0.119 C 
ATOM     20  C   UNL     1       2.679   0.371  -2.163  1.00  0.00    +0.011 C 
ATOM     21  C   UNL     1       3.497   0.947   0.173  1.00  0.00    +0.033 C 
ATOM     22  C   UNL     1       3.987   0.857  -2.765  1.00  0.00    +0.033 C 
ATOM     23  C   UNL     1       4.891   1.422  -0.418  1.00  0.00    -0.004 C 
ATOM     24  C   UNL     1       4.656   1.905  -1.883  1.00  0.00    +0.120 C 
ATOM     25  C   UNL     1      -1.083  -2.654   1.246  1.00  0.00    +0.012 C 
ATOM     26  C   UNL     1       0.210   1.167   1.076  1.00  0.00    +0.012 C 
ATOM     27  C   UNL     1       5.465   2.619   0.378  1.00  0.00    +0.014 C 
ATOM     28  C   UNL     1       5.961   0.304  -0.372  1.00  0.00    +0.014 C 
BRANCH  14  29
ATOM     29  O   UNL     1      -2.710  -0.833   3.711  1.00  0.00    -0.393 OA
ATOM     30  H   UNL     1      -2.393  -0.586   4.598  1.00  0.00    +0.210 HD
ENDBRANCH  14  29
BRANCH  19  31
ATOM     31  O   UNL     1       3.155   1.793   2.449  1.00  0.00    -0.393 OA
ATOM     32  H   UNL     1       3.769   2.513   2.239  1.00  0.00    +0.210 HD
ENDBRANCH  19  31
BRANCH  24  33
ATOM     33  O   UNL     1       5.873   2.322  -2.501  1.00  0.00    -0.393 OA
ATOM     34  H   UNL     1       6.383   1.529  -2.739  1.00  0.00    +0.210 HD
ENDBRANCH  24  33
ENDBRANCH   1   7
BRANCH   4  35
ATOM     35  C   UNL     1      -5.033   0.568  -2.034  1.00  0.00    +0.085 C 
ATOM     36  C   UNL     1      -4.259   1.823  -1.619  1.00  0.00    +0.044 C 
ATOM     37  C   UNL     1      -4.344  -0.059  -3.254  1.00  0.00    +0.044 C 
BRANCH  35  38
ATOM     38  O   UNL     1      -6.343   0.993  -2.439  1.00  0.00    -0.388 OA
ATOM     39  H   UNL     1      -6.798   0.226  -2.827  1.00  0.00    +0.211 HD
ENDBRANCH  35  38
ENDBRANCH   4  35
TORSDOF 6
