REMARK SMILES NCCCCNCCCN
REMARK SMILES IDX 5 1 4 2 3 3 2 4 1 5 6 8 7 10 8 11 9 12 10 13
REMARK H PARENT 1 6 1 7 6 9 10 14 10 15
ROOT
ATOM      1  C   UNL     1       0.764  -1.498   0.015  1.00  0.00    +0.081 C 
ENDROOT
BRANCH   1   2
ATOM      2  C   UNL     1       2.089  -1.425   0.782  1.00  0.00    +0.017 C 
BRANCH   2   3
ATOM      3  C   UNL     1       2.782  -0.057   0.768  1.00  0.00    +0.016 C 
BRANCH   3   4
ATOM      4  C   UNL     1       3.127   0.432  -0.638  1.00  0.00    +0.077 C 
BRANCH   4   5
ATOM      5  N   UNL     1       3.879   1.684  -0.587  1.00  0.00    -0.330 NA
ATOM      6  H   UNL     1       3.314   2.390  -0.116  1.00  0.00    +0.118 HD
ATOM      7  H   UNL     1       4.708   1.560  -0.007  1.00  0.00    +0.118 HD
ENDBRANCH   4   5
ENDBRANCH   3   4
ENDBRANCH   2   3
ENDBRANCH   1   2
BRANCH   1   8
ATOM      8  N   UNL     1      -0.197  -0.526   0.533  1.00  0.00    -0.317 NA
ATOM      9  H   UNL     1      -0.370  -0.708   1.522  1.00  0.00    +0.122 HD
BRANCH   8  10
ATOM     10  C   UNL     1      -1.460  -0.582  -0.204  1.00  0.00    +0.082 C 
BRANCH  10  11
ATOM     11  C   UNL     1      -2.451   0.424   0.386  1.00  0.00    +0.030 C 
BRANCH  11  12
ATOM     12  C   UNL     1      -3.765   0.414  -0.394  1.00  0.00    +0.079 C 
BRANCH  12  13
ATOM     13  N   UNL     1      -4.718   1.347   0.196  1.00  0.00    -0.330 NA
ATOM     14  H   UNL     1      -4.327   2.289   0.185  1.00  0.00    +0.118 HD
ATOM     15  H   UNL     1      -5.559   1.382  -0.379  1.00  0.00    +0.118 HD
ENDBRANCH  12  13
ENDBRANCH  11  12
ENDBRANCH  10  11
ENDBRANCH   8  10
ENDBRANCH   1   8
TORSDOF 9
